# vtk DataFile Version 2.0
Unstructured Grid Example
ASCII
DATASET UNSTRUCTURED_GRID
POINTS 1331 float
0.0 0.0 0.0
0.10000000149 0.0 0.0
0.20000000298 0.0 0.0
0.300000011921 0.0 0.0
0.40000000596 0.0 0.0
0.5 0.0 0.0
0.600000023842 0.0 0.0
0.699999988079 0.0 0.0
0.800000011921 0.0 0.0
0.899999976158 0.0 0.0
1.0 0.0 0.0
0.0 0.10000000149 0.0
0.10000000149 0.10000000149 0.0
0.20000000298 0.10000000149 0.0
0.300000011921 0.10000000149 0.0
0.40000000596 0.10000000149 0.0
0.5 0.10000000149 0.0
0.600000023842 0.10000000149 0.0
0.699999988079 0.10000000149 0.0
0.800000011921 0.10000000149 0.0
0.899999976158 0.10000000149 0.0
1.0 0.10000000149 0.0
0.0 0.20000000298 0.0
0.10000000149 0.20000000298 0.0
0.20000000298 0.20000000298 0.0
0.300000011921 0.20000000298 0.0
0.40000000596 0.20000000298 0.0
0.5 0.20000000298 0.0
0.600000023842 0.20000000298 0.0
0.699999988079 0.20000000298 0.0
0.800000011921 0.20000000298 0.0
0.899999976158 0.20000000298 0.0
1.0 0.20000000298 0.0
0.0 0.300000011921 0.0
0.10000000149 0.300000011921 0.0
0.20000000298 0.300000011921 0.0
0.300000011921 0.300000011921 0.0
0.40000000596 0.300000011921 0.0
0.5 0.300000011921 0.0
0.600000023842 0.300000011921 0.0
0.699999988079 0.300000011921 0.0
0.800000011921 0.300000011921 0.0
0.899999976158 0.300000011921 0.0
1.0 0.300000011921 0.0
0.0 0.40000000596 0.0
0.10000000149 0.40000000596 0.0
0.20000000298 0.40000000596 0.0
0.300000011921 0.40000000596 0.0
0.40000000596 0.40000000596 0.0
0.5 0.40000000596 0.0
0.600000023842 0.40000000596 0.0
0.699999988079 0.40000000596 0.0
0.800000011921 0.40000000596 0.0
0.899999976158 0.40000000596 0.0
1.0 0.40000000596 0.0
0.0 0.5 0.0
0.10000000149 0.5 0.0
0.20000000298 0.5 0.0
0.300000011921 0.5 0.0
0.40000000596 0.5 0.0
0.5 0.5 0.0
0.600000023842 0.5 0.0
0.699999988079 0.5 0.0
0.800000011921 0.5 0.0
0.899999976158 0.5 0.0
1.0 0.5 0.0
0.0 0.600000023842 0.0
0.10000000149 0.600000023842 0.0
0.20000000298 0.600000023842 0.0
0.300000011921 0.600000023842 0.0
0.40000000596 0.600000023842 0.0
0.5 0.600000023842 0.0
0.600000023842 0.600000023842 0.0
0.699999988079 0.600000023842 0.0
0.800000011921 0.600000023842 0.0
0.899999976158 0.600000023842 0.0
1.0 0.600000023842 0.0
0.0 0.699999988079 0.0
0.10000000149 0.699999988079 0.0
0.20000000298 0.699999988079 0.0
0.300000011921 0.699999988079 0.0
0.40000000596 0.699999988079 0.0
0.5 0.699999988079 0.0
0.600000023842 0.699999988079 0.0
0.699999988079 0.699999988079 0.0
0.800000011921 0.699999988079 0.0
0.899999976158 0.699999988079 0.0
1.0 0.699999988079 0.0
0.0 0.800000011921 0.0
0.10000000149 0.800000011921 0.0
0.20000000298 0.800000011921 0.0
0.300000011921 0.800000011921 0.0
0.40000000596 0.800000011921 0.0
0.5 0.800000011921 0.0
0.600000023842 0.800000011921 0.0
0.699999988079 0.800000011921 0.0
0.800000011921 0.800000011921 0.0
0.899999976158 0.800000011921 0.0
1.0 0.800000011921 0.0
0.0 0.899999976158 0.0
0.10000000149 0.899999976158 0.0
0.20000000298 0.899999976158 0.0
0.300000011921 0.899999976158 0.0
0.40000000596 0.899999976158 0.0
0.5 0.899999976158 0.0
0.600000023842 0.899999976158 0.0
0.699999988079 0.899999976158 0.0
0.800000011921 0.899999976158 0.0
0.899999976158 0.899999976158 0.0
1.0 0.899999976158 0.0
0.0 1.0 0.0
0.10000000149 1.0 0.0
0.20000000298 1.0 0.0
0.300000011921 1.0 0.0
0.40000000596 1.0 0.0
0.5 1.0 0.0
0.600000023842 1.0 0.0
0.699999988079 1.0 0.0
0.800000011921 1.0 0.0
0.899999976158 1.0 0.0
1.0 1.0 0.0
0.0 0.0 0.10000000149
0.10000000149 0.0 0.10000000149
0.20000000298 0.0 0.10000000149
0.300000011921 0.0 0.10000000149
0.40000000596 0.0 0.10000000149
0.5 0.0 0.10000000149
0.600000023842 0.0 0.10000000149
0.699999988079 0.0 0.10000000149
0.800000011921 0.0 0.10000000149
0.899999976158 0.0 0.10000000149
1.0 0.0 0.10000000149
0.0 0.10000000149 0.10000000149
0.10000000149 0.10000000149 0.10000000149
0.20000000298 0.10000000149 0.10000000149
0.300000011921 0.10000000149 0.10000000149
0.40000000596 0.10000000149 0.10000000149
0.5 0.10000000149 0.10000000149
0.600000023842 0.10000000149 0.10000000149
0.699999988079 0.10000000149 0.10000000149
0.800000011921 0.10000000149 0.10000000149
0.899999976158 0.10000000149 0.10000000149
1.0 0.10000000149 0.10000000149
0.0 0.20000000298 0.10000000149
0.10000000149 0.20000000298 0.10000000149
0.20000000298 0.20000000298 0.10000000149
0.300000011921 0.20000000298 0.10000000149
0.40000000596 0.20000000298 0.10000000149
0.5 0.20000000298 0.10000000149
0.600000023842 0.20000000298 0.10000000149
0.699999988079 0.20000000298 0.10000000149
0.800000011921 0.20000000298 0.10000000149
0.899999976158 0.20000000298 0.10000000149
1.0 0.20000000298 0.10000000149
0.0 0.300000011921 0.10000000149
0.10000000149 0.300000011921 0.10000000149
0.20000000298 0.300000011921 0.10000000149
0.300000011921 0.300000011921 0.10000000149
0.40000000596 0.300000011921 0.10000000149
0.5 0.300000011921 0.10000000149
0.600000023842 0.300000011921 0.10000000149
0.699999988079 0.300000011921 0.10000000149
0.800000011921 0.300000011921 0.10000000149
0.899999976158 0.300000011921 0.10000000149
1.0 0.300000011921 0.10000000149
0.0 0.40000000596 0.10000000149
0.10000000149 0.40000000596 0.10000000149
0.20000000298 0.40000000596 0.10000000149
0.300000011921 0.40000000596 0.10000000149
0.40000000596 0.40000000596 0.10000000149
0.5 0.40000000596 0.10000000149
0.600000023842 0.40000000596 0.10000000149
0.699999988079 0.40000000596 0.10000000149
0.800000011921 0.40000000596 0.10000000149
0.899999976158 0.40000000596 0.10000000149
1.0 0.40000000596 0.10000000149
0.0 0.5 0.10000000149
0.10000000149 0.5 0.10000000149
0.20000000298 0.5 0.10000000149
0.300000011921 0.5 0.10000000149
0.40000000596 0.5 0.10000000149
0.5 0.5 0.10000000149
0.600000023842 0.5 0.10000000149
0.699999988079 0.5 0.10000000149
0.800000011921 0.5 0.10000000149
0.899999976158 0.5 0.10000000149
1.0 0.5 0.10000000149
0.0 0.600000023842 0.10000000149
0.10000000149 0.600000023842 0.10000000149
0.20000000298 0.600000023842 0.10000000149
0.300000011921 0.600000023842 0.10000000149
0.40000000596 0.600000023842 0.10000000149
0.5 0.600000023842 0.10000000149
0.600000023842 0.600000023842 0.10000000149
0.699999988079 0.600000023842 0.10000000149
0.800000011921 0.600000023842 0.10000000149
0.899999976158 0.600000023842 0.10000000149
1.0 0.600000023842 0.10000000149
0.0 0.699999988079 0.10000000149
0.10000000149 0.699999988079 0.10000000149
0.20000000298 0.699999988079 0.10000000149
0.300000011921 0.699999988079 0.10000000149
0.40000000596 0.699999988079 0.10000000149
0.5 0.699999988079 0.10000000149
0.600000023842 0.699999988079 0.10000000149
0.699999988079 0.699999988079 0.10000000149
0.800000011921 0.699999988079 0.10000000149
0.899999976158 0.699999988079 0.10000000149
1.0 0.699999988079 0.10000000149
0.0 0.800000011921 0.10000000149
0.10000000149 0.800000011921 0.10000000149
0.20000000298 0.800000011921 0.10000000149
0.300000011921 0.800000011921 0.10000000149
0.40000000596 0.800000011921 0.10000000149
0.5 0.800000011921 0.10000000149
0.600000023842 0.800000011921 0.10000000149
0.699999988079 0.800000011921 0.10000000149
0.800000011921 0.800000011921 0.10000000149
0.899999976158 0.800000011921 0.10000000149
1.0 0.800000011921 0.10000000149
0.0 0.899999976158 0.10000000149
0.10000000149 0.899999976158 0.10000000149
0.20000000298 0.899999976158 0.10000000149
0.300000011921 0.899999976158 0.10000000149
0.40000000596 0.899999976158 0.10000000149
0.5 0.899999976158 0.10000000149
0.600000023842 0.899999976158 0.10000000149
0.699999988079 0.899999976158 0.10000000149
0.800000011921 0.899999976158 0.10000000149
0.899999976158 0.899999976158 0.10000000149
1.0 0.899999976158 0.10000000149
0.0 1.0 0.10000000149
0.10000000149 1.0 0.10000000149
0.20000000298 1.0 0.10000000149
0.300000011921 1.0 0.10000000149
0.40000000596 1.0 0.10000000149
0.5 1.0 0.10000000149
0.600000023842 1.0 0.10000000149
0.699999988079 1.0 0.10000000149
0.800000011921 1.0 0.10000000149
0.899999976158 1.0 0.10000000149
1.0 1.0 0.10000000149
0.0 0.0 0.20000000298
0.10000000149 0.0 0.20000000298
0.20000000298 0.0 0.20000000298
0.300000011921 0.0 0.20000000298
0.40000000596 0.0 0.20000000298
0.5 0.0 0.20000000298
0.600000023842 0.0 0.20000000298
0.699999988079 0.0 0.20000000298
0.800000011921 0.0 0.20000000298
0.899999976158 0.0 0.20000000298
1.0 0.0 0.20000000298
0.0 0.10000000149 0.20000000298
0.10000000149 0.10000000149 0.20000000298
0.20000000298 0.10000000149 0.20000000298
0.300000011921 0.10000000149 0.20000000298
0.40000000596 0.10000000149 0.20000000298
0.5 0.10000000149 0.20000000298
0.600000023842 0.10000000149 0.20000000298
0.699999988079 0.10000000149 0.20000000298
0.800000011921 0.10000000149 0.20000000298
0.899999976158 0.10000000149 0.20000000298
1.0 0.10000000149 0.20000000298
0.0 0.20000000298 0.20000000298
0.10000000149 0.20000000298 0.20000000298
0.20000000298 0.20000000298 0.20000000298
0.300000011921 0.20000000298 0.20000000298
0.40000000596 0.20000000298 0.20000000298
0.5 0.20000000298 0.20000000298
0.600000023842 0.20000000298 0.20000000298
0.699999988079 0.20000000298 0.20000000298
0.800000011921 0.20000000298 0.20000000298
0.899999976158 0.20000000298 0.20000000298
1.0 0.20000000298 0.20000000298
0.0 0.300000011921 0.20000000298
0.10000000149 0.300000011921 0.20000000298
0.20000000298 0.300000011921 0.20000000298
0.300000011921 0.300000011921 0.20000000298
0.40000000596 0.300000011921 0.20000000298
0.5 0.300000011921 0.20000000298
0.600000023842 0.300000011921 0.20000000298
0.699999988079 0.300000011921 0.20000000298
0.800000011921 0.300000011921 0.20000000298
0.899999976158 0.300000011921 0.20000000298
1.0 0.300000011921 0.20000000298
0.0 0.40000000596 0.20000000298
0.10000000149 0.40000000596 0.20000000298
0.20000000298 0.40000000596 0.20000000298
0.300000011921 0.40000000596 0.20000000298
0.40000000596 0.40000000596 0.20000000298
0.5 0.40000000596 0.20000000298
0.600000023842 0.40000000596 0.20000000298
0.699999988079 0.40000000596 0.20000000298
0.800000011921 0.40000000596 0.20000000298
[...]
POINT_DATA 1331
TENSORS LE_0 float
0.00183771003503 -0.00193560996559 0.00107164005749
-0.00193560996559 -0.00249118008651 -0.00274825002998
0.00107164005749 -0.00274825002998 0.00205766991712

-0.00357666192576 -0.00519273523241 -0.000113729969598
-0.00519273523241 0.00626996997744 -0.00408439012244
-0.000113729969598 -0.00408439012244 -0.00148877804168

-0.0045056999661 0.00569601496682 0.000619375088718
0.00569601496682 0.0134947001934 -0.00849801022559
0.000619375088718 -0.00849801022559 -0.00822842027992

-0.00194190850016 0.00443914020434 0.00204939860851
0.00443914020434 0.00506796501577 0.000672826485243
0.00204939860851 0.000672826485243 -0.00270229997113

-0.00195135001559 -0.00183654495049 -0.00249008601531
-0.00183654495049 0.00700748013332 -5.43915984963e-06
-0.00249008601531 -5.43915984963e-06 -0.00326059013605

-0.00329710007645 -2.64899008471e-05 8.30129938549e-05
-2.64899008471e-05 0.00882458966225 -0.000891503004823
8.30129938549e-05 -0.000891503004823 -0.00349607504904

-0.00234299013391 0.00115433998872 0.000590419513173
0.00115433998872 0.00515352981165 -0.000848071998917
0.000590419513173 -0.000848071998917 -0.00180936499964

-7.92209903011e-05 0.00133905501571 0.00584040489048
0.00133905501571 -0.00231827003881 -0.00302428985015
0.00584040489048 -0.00302428985015 0.00322142988443

-0.0122520495206 -0.0113545004278 -0.000627735047601
-0.0113545004278 0.0149464001879 -0.00405606999993
-0.000627735047601 -0.00405606999993 -0.00225590262562

-0.0159285999835 0.0021145499777 -0.012398920022
0.0021145499777 0.0233363490552 -0.00738033512607
-0.012398920022 -0.00738033512607 -0.00701414002106

-0.0137723004445 0.00836453028023 -0.0017450300511
0.00836453028023 0.0262873992324 0.00168035004754
-0.0017450300511 0.00168035004754 -0.0121561996639

-0.00333219859749 0.0115245403722 -0.0023413200397
0.0115245403722 0.00764650665224 0.011684444733
-0.0023413200397 0.011684444733 -0.00327953207307

-0.00223396415822 0.00607618736103 0.000381458259653
0.00607618736103 0.00483507476747 0.003411101643
0.000381458259653 0.003411101643 -0.00177337077912

-0.00341664021835 0.00122195854783 -0.00104540248867
0.00122195854783 0.00497128022835 -0.00794273242354
-0.00104540248867 -0.00794273242354 -0.00110850133933

-0.0059189000167 0.00103955995291 -0.00179705047049
0.00103955995291 0.010653113015 0.00427597248927
-0.00179705047049 0.00427597248927 -0.00433918274939

-0.00469882972538 0.0023904540576 1.92825082195e-05
0.0023904540576 0.00934054981917 0.00324819795787
1.92825082195e-05 0.00324819795787 -0.00305719999596

-0.00242020003498 0.000122262965306 0.000278021529084
0.000122262965306 0.00650257011876 -0.0014139226405
0.000278021529084 -0.0014139226405 -0.00227080006152

-0.00134459428955 -0.00331155746244 0.000110900131403
-0.00331155746244 0.00323349749669 -0.00238941819407
0.000110900131403 -0.00238941819407 -0.00102168519516

-0.00900902226567 0.00170341983903 -0.00307000102475
0.00170341983903 0.0168767645955 0.021338051185
-0.00307000102475 0.021338051185 -0.00721214758232

-0.00860952958465 0.00615698751062 0.00335144251585
0.00615698751062 0.0256933495402 0.0127950254828
0.00335144251585 0.0127950254828 -0.0166904758662

-0.00861268956214 0.00625566253439 0.004705672618
0.00625566253439 0.024751925841 0.00798671785742
0.004705672618 0.00798671785742 -0.0158326495439

-0.0106537202373 0.00959873944521 0.00119753496256
0.00959873944521 0.0205464996397 -0.00528327515349
0.00119753496256 -0.00528327515349 -0.00951699446887

-0.00516251474619 -0.00260383496061 -0.00642578490078
-0.00260383496061 0.0122318454087 -0.00324454996735
-0.00642578490078 -0.00324454996735 -0.00648269010708

-0.00428462726995 0.00134336121846 -0.00161850708537
0.00134336121846 0.00929950270802 -0.00137213501148
-0.00161850708537 -0.00137213501148 -0.00386718241498

-0.000587066286243 0.00526406243443 0.0027521927841
0.00526406243443 0.00694587733597 0.00157126260456
0.0027521927841 0.00157126260456 -0.0051938649267

9.50750109041e-05 0.00384018430486 -0.00269771553576
0.00384018430486 0.0106673920527 -0.00969308242202
-0.00269771553576 -0.00969308242202 -0.0100769624114

-0.00228914269246 -0.000558720028494 -0.00235873763449
-0.000558720028494 0.00860880501568 -0.00479946006089
-0.00235873763449 -0.00479946006089 -0.00436375522986

-0.00195380323566 -0.00386002240703 -0.00125136529095
-0.00386002240703 0.00619578268379 0.000382877507946
-0.00125136529095 0.000382877507946 -0.00226951763034

-0.00698658730835 0.00260518025607 0.00238600489683
0.00260518025607 0.0115753524005 0.0153701398522
0.00238600489683 0.0153701398522 -0.00387421483174

-0.00805365946144 0.0108364596963 -0.00188387499657
0.0108364596963 0.0267580505461 -0.00486206263304
-0.00188387499657 -0.00486206263304 -0.01808902435

-0.00719246966764 0.00563159491867 -0.00183993997052
0.00563159491867 0.0148557489738 -0.0172957256436
-0.00183993997052 -0.0172957256436 -0.00706456974149

-0.00674678292125 -0.000823792535812 0.00162030069623
-0.000823792535812 0.0130479559302 -0.0127291250974
0.00162030069623 -0.0127291250974 -0.00574798556045

-0.00566858006641 -0.00129574548919 0.00203376007266
-0.00129574548919 0.0149683505297 0.000507885008119
0.00203376007266 0.000507885008119 -0.0088062454015

-0.00519311754033 0.00819243956357 0.00505114998668
0.00819243956357 0.00961265526712 0.0088875349611
0.00505114998668 0.0088875349611 -0.00411842018366

-0.00243008765392 0.00494129862636 0.00058719428489
0.00494129862636 0.0066515346989 0.00317046232522
0.00058719428489 0.00317046232522 -0.00354760768823

-0.00238600256853 0.00379216205329 -0.002198030008
0.00379216205329 0.00708269746974 -0.00237869843841
-0.002198030008 -0.00237869843841 -0.00380347226746

-0.000421387521783 5.25849827682e-05 0.0016482474748
5.25849827682e-05 0.00138676597271 -0.00270003499463
0.0016482474748 -0.00270003499463 -0.000484686752316

0.00119187647942 5.2032442909e-05 0.0018935125554
5.2032442909e-05 0.000464286713395 -0.000717365008313
0.0018935125554 -0.000717365008313 0.000392727233702

-0.0109460949898 0.00253973179497 0.00602878816426
0.00253973179497 0.012618906796 0.000796420092229
0.00602878816426 0.000796420092229 0.000731815001927

-0.0131085803732 0.00911433715373 0.00230187480338
0.00911433715373 0.0285888742656 0.00821997504681
0.00230187480338 0.00821997504681 -0.014860747382

-0.0029579999391 0.00453263521194 -0.00345728732646
0.00453263521194 0.00250418530777 -0.0062504587695
-0.00345728732646 -0.0062504587695 0.000866099027917

-0.000699294731021 9.05402121134e-05 0.00142949994188
9.05402121134e-05 0.00214455253445 -0.00159704999533
0.00142949994188 -0.00159704999533 -0.000913342984859

-0.000424615689553 0.00122944952454 -0.00078223872697
0.00122944952454 0.00146600452717 -0.000509557372425
-0.00078223872697 -0.000509557372425 -0.000576432968955

-0.00174383446574 0.0030929450877 -0.00249492493458
0.0030929450877 0.00259308633395 -0.00175683945417
-0.00249492493458 -0.00175683945417 -0.000464806013042

-0.00895307026803 -0.00984655506909 -0.00771061517298
-0.00984655506909 0.0205132998526 -0.0131581500173
-0.00771061517298 -0.0131581500173 -0.011304714717

-0.00667223939672 -0.00189936021343 0.00173877738416
-0.00189936021343 0.0116878552362 0.00653091259301
0.00173877738416 0.00653091259301 -0.00486753648147

-0.00460455240682 -0.000289017130854 0.000211667487747
-0.000289017130854 0.00433987937868 0.0165179651231
0.000211667487747 0.0165179651231 0.000583390472457

-0.00442368770018 -0.00652709230781 -0.00208821007982
-0.00652709230781 0.00527727277949 0.0170439947397
-0.00208821007982 0.0170439947397 -0.000310764997266

-0.00580005533993 -0.00137117004488 -0.00340676750056
-0.00137117004488 0.0131288645789 0.0203856471926
-0.00340676750056 0.0203856471926 -0.00613720528781

-0.00443824985996 0.0101933600381 -0.00147364242002
0.0101933600381 0.0104469424114 0.00666843727231
-0.00147364242002 0.00666843727231 -0.00432393746451

-0.0125969741493 0.00816152710468 0.00260393251665
0.00816152710468 0.0167392045259 -0.0160800553858
0.00260393251665 -0.0160800553858 -0.00336825987324

-0.0109419068322 -0.00162149243988 0.0038288696669
-0.00162149243988 0.0148008121178 -0.0012822849676
0.0038288696669 -0.0012822849676 -0.00321511738002

9.93745052256e-05 0.000821181747597 -0.0015619029291
0.000821181747597 0.00101187080145 -0.000575134006795
-0.0015619029291 -0.000575134006795 -0.000279277475784

-0.000690951012075 -0.00114395178389 -0.00066635303665
-0.00114395178389 0.00237516243942 -0.000829499505926
-0.00066635303665 -0.000829499505926 -0.000961060402915

-0.001521385042 -0.00158521847334 0.00234806491062
-0.00158521847334 0.00453515490517 0.000255129940342
0.00234806491062 0.000255129940342 -0.00201673991978

-0.00132050341927 -0.00265293009579 0.0110259000212
-0.00265293009579 0.00652171485126 0.00262215500697
0.0110259000212 0.00262215500697 -0.00480129523203

-0.00768279982731 -0.00461882492527 0.0035909335129
-0.00461882492527 0.0203659497201 0.00521211698651
0.0035909335129 0.00521211698651 -0.012076087296

-0.00695694750175 -0.00807504262775 -0.00218664505519
-0.00807504262775 0.0325036980212 0.0181258507073
-0.00218664505519 0.0181258507073 -0.0246921982616

-0.00479264231399 0.002503357362 -0.00284882984124
0.002503357362 0.027839249 0.0177275724709
-0.00284882984124 0.0177275724709 -0.0221923496574

-0.00506433658302 0.00251908763312 -0.0147345401347
0.00251908763312 0.0273211747408 -0.00863465480506
-0.0147345401347 -0.00863465480506 -0.0213703997433

-0.00686613516882 0.00370262656361 -0.00716425245628
0.00370262656361 0.0159695744514 0.00491552241147
-0.00716425245628 0.00491552241147 -0.00756276492029

0.00141881546006 0.00472762994468 0.00212739175186
0.00472762994468 0.00405726535246 -0.000664566468913
0.00212739175186 -0.000664566468913 -0.00384347746149

-0.0057460796088 -0.00506525253877 0.0027649148833
-0.00506525253877 0.0132458591834 -0.00554638216272
0.0027649148833 -0.00554638216272 -0.0064923982136

-0.00714534008875 -0.00287766731344 0.00261217262596
-0.00287766731344 0.0121114049107 0.00984903797507
0.00261217262596 0.00984903797507 -0.00398992514238

-0.00133054668549 0.00339399767108 -0.000160805982887
0.00339399767108 0.00364090478979 0.00342894322239
-0.000160805982887 0.00342894322239 -0.00140973168891

-0.000668428023346 0.00151999713853 -0.00061646400718
0.00151999713853 0.00252108997665 -0.00297210342251
-0.00061646400718 -0.00297210342251 -0.00113207497634

-0.010311470367 -0.00264392001554 -0.00717366486788
-0.00264392001554 0.019278999418 -0.000439274939708
-0.00717366486788 -0.000439274939708 -0.00850239489228

-0.00908908247948 -0.00235196994618 -0.00770056527108
-0.00235196994618 0.0174170751125 -0.000169319973793
-0.00770056527108 -0.000169319973793 -0.00797314289957

-0.00747931329533 -0.000366312277038 -0.00403254013509
-0.000366312277038 0.0142659302801 -0.0208676382899
-0.00403254013509 -0.0208676382899 -0.00622459035367

-0.00741798011586 -0.00101490749512 0.00566872442141
-0.00101490749512 0.0137416506186 -0.0202943459153
0.00566872442141 -0.0202943459153 -0.00606069294736

-0.00362804159522 -0.00132906751242 0.00791344325989
-0.00132906751242 0.00490205176175 -0.0142869949341
0.00791344325989 -0.0142869949341 -0.000746862438973

-0.00746870599687 0.00712513690814 -0.00402854988351
0.00712513690814 0.0113202454522 -0.00185072491877
-0.00402854988351 -0.00185072491877 -0.00284026004374

-0.00624219281599 0.00484479265288 -0.00374977849424
0.00484479265288 0.00785270798951 -0.00188365497161
-0.00374977849424 -0.00188365497161 -0.00021486323385

8.35605023894e-05 -0.000100324999948 0.00140167004429
-0.000100324999948 0.00304279499687 -0.000359456491424
0.00140167004429 -0.000359456491424 -0.00179776246659

-0.00508622219786 -0.000881879997905 0.00064227997791
-0.000881879997905 0.0142124500126 -0.00563606992364
0.00064227997791 -0.00563606992364 -0.00847482029349

-0.00575919263065 -4.24450627179e-05 0.00242855236866
-4.24450627179e-05 0.0115800024942 -0.00140056002419
0.00242855236866 -0.00140056002419 -0.00475499778986

-0.00325578008778 0.00167631509248 -0.00219142995775
0.00167631509248 0.0079266699031 0.00346268503927
-0.00219142995775 0.00346268503927 -0.00336156995036

-0.00372264254838 -0.00682965712622 -0.000609810522292
-0.00682965712622 0.00806974526495 -0.00522316852584
-0.000609810522292 -0.00522316852584 -0.00393651146442

-0.00212236656807 -0.00158272252884 0.000469276506919
-0.00158272252884 0.00470819836482 -0.0042379447259
0.000469276506919 -0.0042379447259 -0.00227294466458

-0.000145535261254 -4.13015040976e-05 0.00197984743863
-4.13015040976e-05 0.00142728025094 0.000474634493003
0.00197984743863 0.000474634493003 -0.000777382228989

-0.00536762597039 -0.00323366490193 -0.000817331019789
-0.00323366490193 0.00490136258304 0.00490204012021
-0.000817331019789 0.00490204012021 0.000777972745709

-0.00687581254169 -0.00314690778032 -0.00254476745613
-0.00314690778032 0.00874332245439 0.0126410704106
-0.00254476745613 0.0126410704106 -0.00136080244556

-0.00518793752417 0.00157923600636 -0.00110897922423
0.00157923600636 0.00737163750455 0.00749442260712
-0.00110897922423 0.00749442260712 -0.00176296371501

-0.00387302250601 0.00614247331396 0.00170097500086
0.00614247331396 0.00574033008888 0.000463202217361
0.00170097500086 0.000463202217361 -0.00105251627974

-0.000927233253606 0.00195714877918 -0.000975447008386
0.00195714877918 0.00365231256001 -0.000444533245172
-0.000975447008386 -0.000444533245172 -0.00137204653583

-0.00137797242496 -0.00101530249231 8.09799821582e-05
-0.00101530249231 0.00271712499671 -0.00131400988903
8.09799821582e-05 -0.00131400988903 -0.000990079250187

-0.00404392555356 0.0030156977009 0.000117071722343
0.0030156977009 0.00934594776481 -0.000741811003536
0.000117071722343 -0.000741811003536 -0.0045625846833

-0.00404101517051 0.00667052483186 0.00365614006296
0.00667052483186 0.00979948509485 -0.00262654502876
0.00365614006296 -0.00262654502876 -0.00424331519753

-0.000833943486214 0.000374749506591 0.000595720019192
0.000374749506591 0.00172689650208 0.00135640799999
0.000595720019192 0.00135640799999 -0.000631549512036

-0.00026047747815 -0.000525259994902 0.000870327523444
-0.000525259994902 0.00150718446821 0.00101844244637
0.000870327523444 0.00101844244637 -0.000909566995688

-0.00305694970302 -0.00133106752764 0.00144167756662
-0.00133106752764 0.00546798994765 0.00160099705681
0.00144167756662 0.00160099705681 -0.00191605254076

-0.00559520255774 -0.00259151961654 0.00035985498107
-0.00259151961654 0.0137355495244 0.00679482519627
0.00035985498107 0.00679482519627 -0.00755839236081

-0.00858929287642 -0.000906827917788 -0.0024124875199
-0.000906827917788 0.0180666744709 0.00816137157381
-0.0024124875199 0.00816137157381 -0.00883139297366

-0.00541674206033 0.001430680044 -0.000688745756634
0.001430680044 0.0124898022041 0.00431088265032
-0.000688745756634 0.00431088265032 -0.00649768766016

0.000165428922628 0.00257013970986 -0.00131388194859
0.00257013970986 0.00249784253538 0.000261267501628
-0.00131388194859 0.000261267501628 -0.00181613012683

-0.00293122674339 0.00106122903526 0.000182354997378
0.00106122903526 0.00615044729784 0.00272026006132
0.000182354997378 0.00272026006132 -0.00187584932428

-0.00485819252208 -0.00118733523414 0.00177170906682
-0.00118733523414 0.0105668697506 0.00254955491982
0.00177170906682 0.00254955491982 -0.00483049731702

-0.00032650429057 -0.00391408149153 0.000126182494569
-0.00391408149153 0.00160899944603 0.00200594984926
0.000126182494569 0.00200594984926 -0.000866990303621

-0.000439718511188 -0.00998056959361 -0.00419552018866
-0.00998056959361 0.000586750044022 0.00509041408077
-0.00419552018866 0.00509041408077 0.000365736486856

-0.00354130007327 0.00225183996372 0.00118573999498
0.00225183996372 0.00753496028483 0.000978515017778
0.00118573999498 0.000978515017778 -0.00365383992903

-0.00519064255059 -0.000707106722984 3.22477499139e-05
-0.000707106722984 0.0086283152923 0.00117176747881
3.22477499139e-05 0.00117176747881 -0.00307821319439

-0.00527465762571 0.00116846850142 -0.00376533973031
0.00116846850142 0.010433212854 0.00043260253733
-0.00376533973031 0.00043260253733 -0.00476100249216

-0.00446372292936 0.0013696977403 -0.00327102607116
0.0013696977403 0.00746367499232 -0.00858072284609
-0.00327102607116 -0.00858072284609 -0.00242009037174

-0.004093171563 -0.00138741347473 0.000883114757016
-0.00138741347473 0.0071014626883 -0.00900132022798
0.000883114757016 -0.00900132022798 -0.00245441333391

-0.00521224271506 -0.000866996706463 0.00334790255874
-0.000866996706463 0.00888355728239 -0.00335262017325
0.00334790255874 -0.00335262017325 -0.00335272517987

-0.00381278642453 0.00247370521538 0.000115144983283
0.00247370521538 0.00735327973962 0.00556911667809
0.000115144983283 0.00556911667809 -0.00289595150389

-0.00344238756225 0.00474595092237 0.000783769472037
0.00474595092237 0.00935102254152 -0.00173430505674
0.000783769472037 -0.00173430505674 -0.00411728257313

-0.0029543179553 -0.00695532234386 0.00565069029108
-0.00695532234386 0.0103494049981 -0.0114424470812
0.00565069029108 -0.0114424470812 -0.00580747937784

-0.00530992727727 -0.0107836453244 -0.00148416613229
-0.0107836453244 0.0116257099435 0.00969165470451
-0.00148416613229 0.00969165470451 -0.0057056392543

-0.0092143798247 -0.00309774489142 0.00672235479578
-0.00309774489142 0.0167804509401 0.0092872204259
0.00672235479578 0.0092872204259 -0.00695420522243

-0.00715591013432 0.00533912982792 -0.00326617993414
0.00533912982792 0.0165008995682 0.00494450004771
-0.00326617993414 0.00494450004771 -0.00891434960067

-0.00769416987896 -0.00327658001333 -0.00266583496705
-0.00327658001333 0.0161316990852 0.00383404502645
-0.00266583496705 0.00383404502645 -0.00805554538965

-0.00386399985291 -0.00454615987837 -0.000871958967764
-0.00454615987837 0.011338500306 -2.49803488259e-05
-0.000871958967764 -2.49803488259e-05 -0.00712475506589

-0.000238794018514 -0.00143307994585 -9.58899836405e-05
-0.00143307994585 0.00118494557682 0.00207626004703
-9.58899836405e-05 0.00207626004703 -0.000273362646112

0.00125525495969 0.000304155488266 0.000574960024096
0.000304155488266 0.000705472484697 0.00212898012251
0.000574960024096 0.00212898012251 -0.00123665994033

-0.00021186201775 0.00492133991793 0.0036717299372
0.00492133991793 0.00498891994357 0.00176359002944
0.0036717299372 0.00176359002944 -0.00430383998901

-0.00644849007949 0.0070928200148 0.000561755150557
0.0070928200148 0.0167174506932 0.0119616501033
0.000561755150557 0.0119616501033 -0.0095754750073

-0.00703960517421 -0.00684096012264 -0.00205793511122
-0.00684096012264 0.00862062443048 0.00371160497889
-0.00205793511122 0.00371160497889 0.000172130021383

-0.000263479974819 -0.000730371975806 -0.00325253047049
-0.000730371975806 0.00031471249531 0.000860441999976
-0.00325253047049 0.000860441999976 0.00126603501849

-0.00776643492281 -0.00348008493893 -0.00796911027282
-0.00348008493893 0.0166465006769 -0.00830639060587
-0.00796911027282 -0.00830639060587 -0.00874560978264

-0.00876554008573 0.00453250994906 -0.000788039003965
0.00453250994906 0.0133319003507 -0.0136329000816
-0.000788039003965 -0.0136329000816 -0.00433494988829

-0.000993905006908 -0.00395990489051 0.000326399982441
-0.00395990489051 0.00777405500412 -0.00619059009477
0.000326399982441 -0.00619059009477 -0.00560395186767

-0.00335195218213 -0.00183731247671 -0.00731252506375
-0.00183731247671 0.0099817449227 -0.00191701005679
-0.00731252506375 -0.00191701005679 -0.00583005230874

-0.00149355374742 0.00161520496476 0.000797879998572
0.00161520496476 0.00702463276684 0.0023984874133
0.000797879998572 0.0023984874133 -0.00459857238457

-0.0044672251679 -0.00362986978143 0.0023780472111
-0.00362986978143 0.00663226749748 -0.000763257732615
0.0023780472111 -0.000763257732615 -0.00126783398446

-0.00487216515467 0.00145464751404 -0.00293851504102
0.00145464751404 0.00860716030002 0.000702728750184
-0.00293851504102 0.000702728750184 -0.00217290502042
