# vtk DataFile Version 2.0
Unstructured Grid Example
ASCII
DATASET UNSTRUCTURED_GRID
POINTS 64 float
0.0 0.0 0.0
1.66666662693 0.0 0.0
3.33333325386 0.0 0.0
5.0 0.0 0.0
0.0 1.66666662693 0.0
1.66666662693 1.66666662693 0.0
3.33333325386 1.66666662693 0.0
5.0 1.66666662693 0.0
0.0 3.33333325386 0.0
1.66666662693 3.33333325386 0.0
3.33333325386 3.33333325386 0.0
5.0 3.33333325386 0.0
0.0 5.0 0.0
1.66666662693 5.0 0.0
3.33333325386 5.0 0.0
5.0 5.0 0.0
0.0 0.0 1.66666662693
1.66666662693 0.0 1.66666662693
3.33333325386 0.0 1.66666662693
5.0 0.0 1.66666662693
0.0 1.66666662693 1.66666662693
1.66666662693 1.66666662693 1.66666662693
3.33333325386 1.66666662693 1.66666662693
5.0 1.66666662693 1.66666662693
0.0 3.33333325386 1.66666662693
1.66666662693 3.33333325386 1.66666662693
3.33333325386 3.33333325386 1.66666662693
5.0 3.33333325386 1.66666662693
0.0 5.0 1.66666662693
1.66666662693 5.0 1.66666662693
3.33333325386 5.0 1.66666662693
5.0 5.0 1.66666662693
0.0 0.0 3.33333325386
1.66666662693 0.0 3.33333325386
3.33333325386 0.0 3.33333325386
5.0 0.0 3.33333325386
0.0 1.66666662693 3.33333325386
1.66666662693 1.66666662693 3.33333325386
3.33333325386 1.66666662693 3.33333325386
5.0 1.66666662693 3.33333325386
0.0 3.33333325386 3.33333325386
1.66666662693 3.33333325386 3.33333325386
3.33333325386 3.33333325386 3.33333325386
5.0 3.33333325386 3.33333325386
0.0 5.0 3.33333325386
1.66666662693 5.0 3.33333325386
3.33333325386 5.0 3.33333325386
5.0 5.0 3.33333325386
0.0 0.0 5.0
1.66666662693 0.0 5.0
3.33333325386 0.0 5.0
5.0 0.0 5.0
0.0 1.66666662693 5.0
1.66666662693 1.66666662693 5.0
3.33333325386 1.66666662693 5.0
5.0 1.66666662693 5.0
0.0 3.33333325386 5.0
1.66666662693 3.33333325386 5.0
3.33333325386 3.33333325386 5.0
5.0 3.33333325386 5.0
0.0 5.0 5.0
1.66666662693 5.0 5.0
3.33333325386 5.0 5.0
5.0 5.0 5.0
CELLS 27 243
8 0 1 5 4 16 17 21 20 
8 1 2 6 5 17 18 22 21 
8 2 3 7 6 18 19 23 22 
8 4 5 9 8 20 21 25 24 
8 5 6 10 9 21 22 26 25 
8 6 7 11 10 22 23 27 26 
8 8 9 13 12 24 25 29 28 
8 9 10 14 13 25 26 30 29 
8 10 11 15 14 26 27 31 30 
8 16 17 21 20 32 33 37 36 
8 17 18 22 21 33 34 38 37 
8 18 19 23 22 34 35 39 38 
8 20 21 25 24 36 37 41 40 
8 21 22 26 25 37 38 42 41 
8 22 23 27 26 38 39 43 42 
8 24 25 29 28 40 41 45 44 
8 25 26 30 29 41 42 46 45 
8 26 27 31 30 42 43 47 46 
8 32 33 37 36 48 49 53 52 
8 33 34 38 37 49 50 54 53 
8 34 35 39 38 50 51 55 54 
8 36 37 41 40 52 53 57 56 
8 37 38 42 41 53 54 58 57 
8 38 39 43 42 54 55 59 58 
8 40 41 45 44 56 57 61 60 
8 41 42 46 45 57 58 62 61 
8 42 43 47 46 58 59 63 62 
CELL_TYPES 27
12
12
12
12
12
12
12
12
12
12
12
12
12
12
12
12
12
12
12
12
12
12
12
12
12
12
12
POINT_DATA 64
TENSORS LE_0 float
-0.103563003242 -0.00444121006876 0.00859985966235
-0.00444121006876 0.20867100358 0.000134039000841
0.00859985966235 0.000134039000841 -0.103116996586

-0.117292501032 -0.0180233493447 -0.000347096007317
-0.0180233493447 0.233041003346 -0.00807436462492
-0.000347096007317 -0.00807436462492 -0.113678000867

-0.12434899807 0.00721460022032 -0.00045078000403
0.00721460022032 0.247218504548 -0.0135086998343
-0.00045078000403 -0.0135086998343 -0.12078999728

-0.117830999196 0.0121224997565 -0.00478550000116
0.0121224997565 0.234610006213 -0.00735691003501
-0.00478550000116 -0.00735691003501 -0.114770002663

-0.113202996552 0.0110013652593 -0.000324748252751
0.0110013652593 0.229307502508 0.00677487486973
-0.000324748252751 0.00677487486973 -0.11405800283

-0.110601752996 0.00283205742016 0.000553213001695
0.00283205742016 0.223979502916 -0.00734090758488
0.000553213001695 -0.00734090758488 -0.111322000623

-0.111261248589 0.00579068483785 -0.00230939919129
0.00579068483785 0.224877998233 -0.017772750929
-0.00230939919129 -0.017772750929 -0.111565999687

-0.113942496479 0.00494586536661 -0.000207259494346
0.00494586536661 0.230900004506 -0.0124933002517
-0.000207259494346 -0.0124933002517 -0.11492100358

-0.108909003437 -0.0248936004937 -0.00610352493823
-0.0248936004937 0.219224497676 -0.0187025498599
-0.00610352493823 -0.0187025498599 -0.108268998563

-0.101978696883 -0.00166115246248 0.000628428708296
-0.00166115246248 0.206220492721 -0.00738545227796
0.000628428708296 -0.00738545227796 -0.102264598012

-0.097244553268 0.00869839545339 -0.000327465008013
0.00869839545339 0.19860650599 -0.00849447213113
-0.000327465008013 -0.00849447213113 -0.0993899032474

-0.100463502109 0.0247542504221 0.00089243601542
0.0247542504221 0.20436899364 -0.0205048508942
0.00089243601542 -0.0205048508942 -0.10187009722

-0.0920184031129 -0.0176448002458 0.00336063001305
-0.0176448002458 0.184955999255 -0.0277964007109
0.00336063001305 -0.0277964007109 -0.09094709903

-0.0980582013726 0.00967081543058 -0.00154890946578
0.00967081543058 0.19699549675 -0.0178226493299
-0.00154890946578 -0.0178226493299 -0.0970234498382

-0.0980044528842 -0.00160959002096 0.00631185015664
-0.00160959002096 0.195631504059 -0.0112914498895
0.00631185015664 -0.0112914498895 -0.0957055017352

-0.092138402164 0.00782010983676 0.00131841003895
0.00782010983676 0.18377199769 -0.0154138002545
0.00131841003895 -0.0154138002545 -0.0896273031831

-0.111638501287 -0.00522432522848 -0.00130596105009
-0.00522432522848 0.227736994624 -0.0147217996418
-0.00130596105009 -0.0147217996418 -0.114028997719

-0.119933247566 -0.0105559248477 -0.0118798250332
-0.0105559248477 0.241008505225 -0.00658780010417
-0.0118798250332 -0.00658780010417 -0.118877500296

-0.123733751476 0.00501052523032 -0.00207590754144
0.00501052523032 0.24701474607 -0.00228139501996
-0.00207590754144 -0.00228139501996 -0.121076747775

-0.118819996715 0.0107807498425 0.000356388511136
0.0107807498425 0.238621994853 -0.00639350479469
0.000356388511136 -0.00639350479469 -0.117720000446

-0.114398248494 -0.00188135995995 0.00267264177091
-0.00188135995995 0.231498003006 0.00288475258276
0.00267264177091 0.00288475258276 -0.115042246878

-0.113780751824 -0.00167004496325 0.0032364311628
-0.00167004496325 0.229898631573 -0.000912558753043
0.0032364311628 -0.000912558753043 -0.114040747285

-0.113649375737 0.0042024385184 -0.0047071822919
0.0042024385184 0.229532375932 -0.00626043230295
-0.0047071822919 -0.00626043230295 -0.113808996975

-0.113936498761 0.00875819474459 -0.0033510599751
0.00875819474459 0.230658501387 -0.00581961730495
-0.0033510599751 -0.00581961730495 -0.114670500159

-0.103506572545 -0.0217794254422 0.00133183971047
-0.0217794254422 0.208565756679 -0.00728520518169
0.00133183971047 -0.00728520518169 -0.103082321584

-0.0998457372189 -0.00545178726315 0.00630383612588
-0.00545178726315 0.201888248324 0.001325756195
0.00630383612588 0.001325756195 -0.100193314254

-0.097757562995 0.00635902397335 0.000657821248751
0.00635902397335 0.198737367988 -0.00109257467557
0.000657821248751 -0.00109257467557 -0.0991337001324

-0.0999796018004 0.0194217506796 -0.00122541247401
0.0194217506796 0.202590748668 -0.0126203875989
-0.00122541247401 -0.0126203875989 -0.10064112395

-0.0909895971417 -0.0186976995319 -0.004905174952
-0.0186976995319 0.18178999424 1.06332554424e-05
-0.004905174952 1.06332554424e-05 -0.0888924971223

-0.0914444476366 -0.000773881736677 -0.00651489244774
-0.000773881736677 0.184836506844 -0.00829466991127
-0.00651489244774 -0.00829466991127 -0.0916496738791

-0.0919767990708 0.00371016003191 0.00956520996988
0.00371016003191 0.185816496611 -0.00770875997841
0.00956520996988 -0.00770875997841 -0.0920918509364

-0.0924409478903 0.0124289998785 0.00695870490745
0.0124289998785 0.183882504702 -0.0020427799318
0.00695870490745 -0.0020427799318 -0.0895222499967

-0.121767997742 -0.0135719003156 0.000348734989529
-0.0135719003156 0.249365001917 -0.00699016498402
0.000348734989529 -0.00699016498402 -0.125512003899

-0.123443752527 -0.000966863997746 -0.00868401490152
-0.000966863997746 0.24987450242 -0.000353148003342
-0.00868401490152 -0.000353148003342 -0.124225251377

-0.121989503503 0.00186866999138 -0.0021587270312
0.00186866999138 0.244660243392 0.00230150250718
-0.0021587270312 0.00230150250718 -0.120464250445

-0.11901050061 0.0132472002879 -0.0014582349686
0.0132472002879 0.239653497934 0.000768486526795
-0.0014582349686 0.000768486526795 -0.11855699867

-0.11193600297 -0.0163207855076 0.000350172369508
-0.0163207855076 0.226286500692 0.00474293297157
0.000350172369508 0.00474293297157 -0.112299747765

-0.116101376712 -0.00650786980987 0.00260063121095
-0.00650786980987 0.233696505427 0.00598496478051
0.00260063121095 0.00598496478051 -0.115521371365

-0.115252248943 0.000530721270479 -0.00361156882718
0.000530721270479 0.232240125537 0.00306283216923
-0.00361156882718 0.00306283216923 -0.114914372563

-0.110250003636 0.0113370874897 -0.00126623548567
0.0113370874897 0.223222494125 0.00101402075961
-0.00126623548567 0.00101402075961 -0.110922247171

-0.0990131720901 -0.00359118240885 0.000354129006155
-0.00359118240885 0.198033496737 -0.000514319224749
0.000354129006155 -0.000514319224749 -0.0970520228148

-0.0978239774704 -0.00256132613868 0.00360940257087
-0.00256132613868 0.197279006243 0.00823696516454
0.00360940257087 0.00823696516454 -0.0976113379002

-0.098780348897 -0.000548487470951 0.000823959242553
-0.000548487470951 0.199799627066 0.00694467686117
0.000823959242553 0.00694467686117 -0.099175453186

-0.100701503456 -0.000498007517308 0.00013840450265
-0.000498007517308 0.202936246991 -0.0055557298474
0.00013840450265 -0.0055557298474 -0.100266203284

-0.0945845022798 -0.0131938997656 -0.00133579003159
-0.0131938997656 0.191755503416 0.0112756500021
-0.00133579003159 0.0112756500021 -0.0952503979206

-0.0872781276703 -0.00757881766185 -0.00386899500154
-0.00757881766185 0.176802992821 0.00492107262835
-0.00386899500154 0.00492107262835 -0.0877791494131

-0.0891973748803 0.00950306747109 0.00617107748985
0.00950306747109 0.180289998651 0.00446648523211
0.00617107748985 0.00446648523211 -0.089345626533

-0.0986493527889 0.012641149573 0.00322118005715
0.012641149573 0.198654994369 0.00895699020475
0.00322118005715 0.00895699020475 -0.098081253469

-0.122095003724 -0.0186717994511 0.00571878999472
-0.0186717994511 0.248609006405 0.01746940054
0.00571878999472 0.01746940054 -0.124490998685

-0.123626500368 0.00234077498317 -9.5699353551e-05
0.00234077498317 0.249125495553 0.0116317998618
-9.5699353551e-05 0.0116317998618 -0.123411498964

-0.120902501047 0.000934069510549 -0.000574010016862
0.000934069510549 0.242825999856 0.00960792507976
-0.000574010016862 0.00960792507976 -0.119837999344

-0.116999000311 0.0140701998025 -0.00207096990198
0.0140701998025 0.235326007009 0.0143929999322
-0.00207096990198 0.0143929999322 -0.116309002042

-0.109821498394 -0.0156536009163 -0.00526703521609
-0.0156536009163 0.220619499683 0.0129487002268
-0.00526703521609 0.0129487002268 -0.108765497804

-0.116094246507 -0.00336879258975 -0.000705495011061
-0.00336879258975 0.231657996774 0.0156234353781
-0.000705495011061 0.0156234353781 -0.113514751196

-0.115590497851 -0.000100057499367 4.11125001847e-05
-0.000100057499367 0.230632007122 0.0146164754406
4.11125001847e-05 0.0146164754406 -0.112991496921

-0.108020998538 0.00882960483432 0.00376567989588
0.00882960483432 0.216996997595 0.0102262850851
0.00376567989588 0.0102262850851 -0.106942497194

-0.099275700748 0.00351308495738 -0.00117900501937
0.00351308495738 0.199128493667 0.00291006010957
-0.00117900501937 0.00291006010957 -0.0978234484792

-0.0979665741324 -0.000387275009416 0.000234470251598
-0.000387275009416 0.197720244527 0.014037697576
0.000234470251598 0.014037697576 -0.0977879464626

-0.0991858989 -0.00304605253041 -5.12402493769e-06
-0.00304605253041 0.200539246202 0.0142665328458
-5.12402493769e-06 0.0142665328458 -0.0993857011199

-0.101490348577 -0.0101569350809 0.000417564006057
-0.0101569350809 0.205188497901 -0.00208522006869
0.000417564006057 -0.00208522006869 -0.101665653288

-0.0976549983025 -0.00961314979941 0.0100205997005
-0.00961314979941 0.202290996909 0.00587528990582
0.0100205997005 0.00587528990582 -0.102619998157

-0.0886367484927 -0.00870195496827 0.00286523997784
-0.00870195496827 0.181106492877 0.0129060996696
0.00286523997784 0.0129060996696 -0.0905496031046

-0.0906092524529 0.0103302998468 -0.00383740290999
0.0103302998468 0.18414349854 0.0129638500512
-0.00383740290999 0.0129638500512 -0.0916142985225

-0.102769002318 0.00979472044855 -0.0117319999263
0.00979472044855 0.211904004216 0.00428456021473
-0.0117319999263 0.00428456021473 -0.10711800307

TENSORS S_0 float
3.93369009544e-06 -0.000302856002236 0.000154932000441
-0.000302856002236 0.00496156001464 -0.000298208993627
0.000154932000441 -0.000298208993627 1.09365000753e-05

2.13602506847e-05 -0.000145412006532 5.69803996768e-05
-0.000145412006532 0.00503855012357 -0.000321766012348
5.69803996768e-05 -0.000321766012348 0.000116712297313

2.70111559075e-05 0.000133378998726 -5.10060999659e-05
0.000133378998726 0.00504557508975 -0.000332753494149
-5.10060999659e-05 -0.000332753494149 0.000126431652461

1.7224900148e-05 0.00031654999475 -0.000140520001878
0.00031654999475 0.00497232982889 -0.000318451988278
-0.000140520001878 -0.000318451988278 3.16562982334e-05

4.02512996516e-05 -9.23944025999e-05 -5.09385017722e-07
-9.23944025999e-05 0.00504171010107 -9.51523034018e-05
-5.09385017722e-07 -9.51523034018e-05 3.34546493832e-05

4.10214997828e-05 -7.23250013834e-06 -1.66536995039e-06
-7.23250013834e-06 0.00504483748227 -0.000149943574797
-1.66536995039e-06 -0.000149943574797 5.32052363269e-05

3.80709279852e-05 2.00382492039e-05 -6.09232756688e-06
2.00382492039e-05 0.00503915268928 -0.000163645978319
-6.09232756688e-06 -0.000163645978319 4.96714819747e-05

3.5731078242e-05 0.000121737262816 -1.18670050142e-05
0.000121737262816 0.00503070978448 -0.000126928105601
-1.18670050142e-05 -0.000126928105601 2.46493491431e-05

4.67241989099e-05 -0.000225880605285 -0.000111726847535
-0.000225880605285 0.0050138249062 -0.000229323646636
-0.000111726847535 -0.000229323646636 5.41736008017e-05

3.14757016895e-05 -1.79025755642e-05 -4.46590966021e-05
-1.79025755642e-05 0.00495798513293 -0.000254887825577
-4.46590966021e-05 -0.000254887825577 -4.73286490887e-05

2.83760491584e-05 1.16322253234e-05 4.76908753626e-05
1.16322253234e-05 0.00495476741344 -0.000245015806286
4.76908753626e-05 -0.000245015806286 -5.41486988368e-05

4.10711800214e-05 0.000211479695281 0.000113232752483
0.000211479695281 0.00500654987991 -0.000211243954254
0.000113232752483 -0.000211243954254 4.08296509704e-05

2.82531000266e-05 -0.000524315983057 -0.000129316002131
-0.000524315983057 0.00490499008447 -0.000537618005183
-0.000129316002131 -0.000537618005183 4.17912015109e-05

-2.12114991882e-06 -0.000192120496649 -5.27621014044e-05
-0.000192120496649 0.00486940983683 -0.000634771480691
-5.27621014044e-05 -0.000634771480691 -8.45276517794e-05

2.81160009763e-06 0.000198591500521 5.70876982238e-05
0.000198591500521 0.00487681478262 -0.000628967012744
5.70876982238e-05 -0.000628967012744 -7.64146025176e-05

3.96032992285e-05 0.000513794017024 0.000136742004543
0.000513794017024 0.00492297997698 -0.000525965995621
0.000136742004543 -0.000525965995621 5.33558995812e-05

0.000114207701699 -0.00031870600651 5.6008950196e-05
-0.00031870600651 0.00503733986989 -0.00014481699327
5.6008950196e-05 -0.00014481699327 2.00565500563e-05

0.000167898164364 -0.000140286501846 1.17966073958e-05
-0.000140286501846 0.00516049005091 -0.000139520998346
1.17966073958e-05 -0.000139520998346 0.000165158606251

0.000172084808582 0.000136306494824 -2.06670429179e-05
0.000136306494824 0.00516606494784 -0.000139726500493
-2.06670429179e-05 -0.000139726500493 0.000170805986272

0.000122151148389 0.000326653505908 -5.34249993507e-05
0.000326653505908 0.0050471550785 -0.000140555493999
-5.34249993507e-05 -0.000140555493999 3.31235241902e-05

5.19876157341e-05 -0.000141185504617 -2.05273499887e-06
-0.000141185504617 0.0050472500734 -3.93675009036e-06
-2.05273499887e-06 -3.93675009036e-06 4.40015173808e-05

6.16970137344e-05 -1.94176245714e-05 5.24430106452e-07
-1.94176245714e-05 0.00506091490388 -2.11735004996e-05
5.24430106452e-07 -2.11735004996e-05 6.92215107847e-05

5.91127245571e-05 2.19402500079e-05 -6.62501236093e-07
2.19402500079e-05 0.0050583248958 -2.66763745458e-05
-6.62501236093e-07 -2.66763745458e-05 6.65716361254e-05

4.86205826746e-05 0.000154241948621 -2.40606755142e-06
0.000154241948621 0.00504093477502 -1.78177506314e-05
-2.40606755142e-06 -1.78177506314e-05 3.80320707336e-05

-4.27595987276e-05 -0.000254867540207 -3.79113480449e-05
-0.000254867540207 0.00495834508911 -1.38757750392e-05
-3.79113480449e-05 -1.38757750392e-05 2.63066176558e-05

-0.000112849840662 -9.38767516345e-06 -8.19716024125e-06
-9.38767516345e-06 0.00485492730513 -2.76240007224e-06
-8.19716024125e-06 -2.76240007224e-06 -0.000119365060527

-0.000114932263386 8.60802538227e-06 1.53963046614e-05
8.60802538227e-06 0.0048521575518 -7.50337505906e-07
1.53963046614e-05 -7.50337505906e-07 -0.00012283619435

-4.71187486255e-05 0.000246543932008 3.99523996748e-05
0.000246543932008 0.00495322514325 -1.15619495773e-05
3.99523996748e-05 -1.15619495773e-05 1.91395720321e-05

-9.85152510111e-05 -0.000626932480372 -6.37862467556e-05
-0.000626932480372 0.00486610503867 -0.000193315005163
-6.37862467556e-05 -0.000193315005163 1.32169998324e-06

-0.000220041096327 -0.000234485502006 -3.05939211103e-05
-0.000234485502006 0.00479097757488 -0.000243655755185
-3.05939211103e-05 -0.000243655755185 -0.000215640480747

-0.0002165116166 0.000242219248321 2.47694279096e-05
0.000242219248321 0.00479438249022 -0.000247200252488
2.47694279096e-05 -0.000247200252488 -0.000208156372537

-9.02243991732e-05 0.000623549509328 6.77514472045e-05
0.000623549509328 0.00487572513521 -0.000198935493245
6.77514472045e-05 -0.000198935493245 1.22422497952e-05

0.000128731378936 -0.000334184500389 -5.03114497405e-05
-0.000334184500389 0.00504995509982 0.000128895495436
-5.03114497405e-05 0.000128895495436 3.31123083015e-05

0.000174414220965 -0.000138152507134 -2.50712673733e-05
-0.000138152507134 0.00516784004867 0.000136976494105
-2.50712673733e-05 0.000136976494105 0.000171473424416

0.000174972446985 0.000136250746436 1.9589864678e-05
0.000136250746436 0.00516845518723 0.000137250244734
1.9589864678e-05 0.000137250244734 0.000171941952431

0.000128447150928 0.000331366492901 5.2393101214e-05
0.000331366492901 0.0050512701273 0.000131422493723
5.2393101214e-05 0.000131422493723 3.53663235728e-05

4.80387752759e-05 -0.000166360274306 -8.45413251227e-06
-0.000166360274306 0.00503893243149 2.94682504318e-05
-8.45413251227e-06 2.94682504318e-05 3.92026013287e-05

6.38054334559e-05 -2.64374994003e-05 -1.09677387172e-06
-2.64374994003e-05 0.00505821499974 2.20465008169e-05
-1.09677387172e-06 2.20465008169e-05 6.19491620455e-05

6.29550777376e-05 2.2582249585e-05 -1.30562511913e-06
2.2582249585e-05 0.00505852745846 2.03338749998e-05
-1.30562511913e-06 2.03338749998e-05 6.14532036707e-05

4.65930606879e-05 0.000162988100783 4.01038005293e-06
0.000162988100783 0.00503914244473 2.18605000555e-05
4.01038005293e-06 2.18605000555e-05 3.83680235245e-05

-4.58166759927e-05 -0.000249048433034 5.7980974816e-05
-0.000249048433034 0.00495014479384 -3.77774995286e-07
5.7980974816e-05 -3.77774995286e-07 1.65051751537e-05

-0.000123745587189 -1.44855005146e-06 2.78556708508e-05
-1.44855005146e-06 0.00484991353005 7.5192751865e-06
2.78556708508e-05 7.5192751865e-06 -0.000117198040243

-0.000122642188217 -6.12812527834e-07 -2.2100730348e-05
-6.12812527834e-07 0.00484896358103 4.77736239191e-06
-2.2100730348e-05 4.77736239191e-06 -0.000117099298222

-4.38529750681e-05 0.000245711562457 -5.80170380999e-05
0.000245711562457 0.00495004979894 -7.60262491895e-06
-5.80170380999e-05 -7.60262491895e-06 1.5137945411e-05

-7.71955019445e-05 -0.000631417497061 4.05769242207e-05
-0.000631417497061 0.00487572513521 0.000212680504774
4.05769242207e-05 0.000212680504774 2.59619991994e-06

-0.000212661369005 -0.00024627748644 2.52685504165e-06
-0.00024627748644 0.00479341484606 0.000242388501647
2.52685504165e-06 0.000242388501647 -0.000217025968595

-0.000213310020627 0.000251910241786 -2.97101496471e-06
0.000251910241786 0.00479520484805 0.00024001224665
-2.97101496471e-06 0.00024001224665 -0.000213949635508

-7.75014996179e-05 0.0006405445165 -3.48178109562e-05
0.0006405445165 0.00487791979685 0.000207037999644
-3.48178109562e-05 0.000207037999644 9.13910025702e-06

4.15237009292e-05 -0.000323426007526 -0.000134553003591
-0.000323426007526 0.00498251989484 0.000322445994243
-0.000134553003591 0.000322445994243 3.27786983689e-05

3.96065006498e-05 -0.00013462449715 -5.28551499883e-05
-0.00013462449715 0.00505152484402 0.000333915988449
-5.28551499883e-05 0.000333915988449 0.00012586064986

3.66981548723e-05 0.000133299006848 5.33464517503e-05
0.000133299006848 0.0050499998033 0.000332830008119
5.33464517503e-05 0.000332830008119 0.000125146296341

3.52573988494e-05 0.000319826998748 0.000135167007102
0.000319826998748 0.00497979996726 0.000321302999509
0.000135167007102 0.000321302999509 3.14677017741e-05

2.561600013e-05 -0.000149165149196 -1.66711506608e-05
-0.000149165149196 0.00502463476732 0.000144239806104
-1.66711506608e-05 0.000144239806104 3.10340001306e-05

3.90212517232e-05 -2.68422500085e-05 -4.5130491344e-06
-2.68422500085e-05 0.00503937480971 0.00015883584274
-4.5130491344e-06 0.00015883584274 4.49364706583e-05

4.1001549107e-05 2.09329991776e-05 3.50871459887e-06
2.09329991776e-05 0.00504026515409 0.000156081179739
3.50871459887e-06 0.000156081179739 4.34803441749e-05

2.88389492198e-05 0.000142328353832 1.49748502736e-05
0.000142328353832 0.00502634001896 0.00013723304437
1.49748502736e-05 0.00013723304437 2.89411000267e-05

3.75742383767e-05 -0.000202843744773 0.000118306699733
-0.000202843744773 0.00500104995444 0.000201204355108
0.000118306699733 0.000201204355108 3.39790094586e-05

8.79081289895e-06 4.50449988421e-07 4.96252760058e-05
4.50449988421e-07 0.00494829239324 0.000248499127338
4.96252760058e-05 0.000248499127338 -4.24335994467e-05

1.01858322523e-05 -8.25517508929e-06 -5.1642775361e-05
-8.25517508929e-06 0.00494996504858 0.000244156632107
-5.1642775361e-05 0.000244156632107 -4.14866735809e-05

4.13367051806e-05 0.00019952194998 -0.000121154051158
0.00019952194998 0.00500565487891 0.000192438848899
-0.000121154051158 0.000192438848899 3.36384655384e-05

6.12996009295e-05 -0.000530848978087 0.00012948299991
-0.000530848978087 0.00493087992072 0.000521724985447
0.00012948299991 0.000521724985447 4.72856008855e-05

1.37890501719e-05 -0.000211033999221 4.94750056532e-05
-0.000211033999221 0.00487542990595 0.000629865506198
4.94750056532e-05 0.000629865506198 -8.9590997959e-05

1.32013001348e-05 0.000215825493797 -4.48658356618e-05
0.000215825493797 0.00487527484074 0.000633859017398
-4.48658356618e-05 0.000633859017398 -8.88010035851e-05

5.99406994297e-05 0.000544360023923 -0.000122972996905
0.000544360023923 0.0049288100563 0.000526947027538
-0.000122972996905 0.000526947027538 5.08076991537e-05

SCALARS PEEQ_0 float 1
LOOKUP_TABLE default
0.203826993704
0.228878006339
0.242325499654
0.230049997568
0.225598499179
0.218845501542
0.22035600245
0.226068496704
0.215122506022
0.201806753874
0.193772748113
0.200614497066
0.181859999895
0.192782998085
0.191022500396
0.179152995348
0.223161995411
0.23640075326
0.242073506117
0.233899995685
0.226686000824
0.224944248796
0.224680125713
0.225792005658
0.204304754734
0.197050496936
0.193814247847
0.19840875268
0.177249997854
0.179995507002
0.181229993701
0.179288998246
0.245081499219
0.245147004724
0.239782243967
0.235047504306
0.221671745181
0.22880962491
0.227321624756
0.218269750476
0.193098247051
0.192750617862
0.195044994354
0.198365747929
0.187198504806
0.171844005585
0.175620496273
0.194009006023
0.244256004691
0.244409993291
0.23807400465
0.230836004019
0.215998500586
0.227120757103
0.225995242596
0.211963996291
0.19450250268
0.193188995123
0.196269243956
0.201480001211
0.197701007128
0.176690995693
0.179761499166
0.207256004214
VECTORS U_0 float
0.0 0.0 0.0
-0.164203003049 0.0 0.00552712986246
-0.373760014772 0.0 0.00856359954923
-0.564231991768 0.0 0.0
-0.00679336022586 0.386420994997 0.00012608099496
-0.191403001547 0.434031009674 -0.00674807000905
-0.362926989794 0.460072994232 -0.011796399951
-0.545943975449 0.433418005705 -0.0111720999703
-0.0346016995609 0.840837001801 -0.0353914983571
-0.208395004272 0.826812982559 -0.043120700866
-0.355677992105 0.836365997791 -0.0493704006076
-0.511494994164 0.856352984905 -0.0514205992222
-0.0620595999062 1.20000004768 -0.0786603987217
-0.19343200326 1.20000004768 -0.0705922991037
-0.35821801424 1.20000004768 -0.0667345002294
-0.499440014362 1.20000004768 -0.07526820153
0.0073066400364 0.0 -0.163499996066
-0.16910199821 0.0 -0.17604200542
-0.371609985828 0.0 -0.186270996928
-0.562694013119 0.0 -0.185925006866
-0.000653856026474 0.425909012556 -0.18578800559
-0.184971004725 0.452636003494 -0.185910001397
-0.364073008299 0.4629150033 -0.189715996385
-0.546446025372 0.443044990301 -0.195559993386
-0.0363566987216 0.856119990349 -0.208617001772
-0.200485005975 0.854878008366 -0.204420998693
-0.352021992207 0.855847001076 -0.204430997372
-0.508004009724 0.857252001762 -0.209592998028
-0.0653128996491 1.20000004768 -0.208537995815
-0.201628997922 1.20000004768 -0.217243000865
-0.346356987953 1.20000004768 -0.216302007437
-0.488833993673 1.20000004768 -0.212698996067
0.0210772007704 0.0 -0.359919011593
-0.17668299377 0.0 -0.37036600709
-0.369976997375 0.0 -0.377225011587
-0.563781023026 0.0 -0.378848999739
0.000649772002362 0.462534993887 -0.370377004147
-0.17813000083 0.470196992159 -0.370891004801
-0.367166996002 0.458885997534 -0.373759001493
-0.543847978115 0.441756993532 -0.377700001001
-0.0393270999193 0.841430008411 -0.362098991871
-0.193777993321 0.874628007412 -0.359959989786
-0.348315000534 0.867693006992 -0.361162990332
-0.504853010178 0.827154994011 -0.365031987429
-0.0596658997238 1.20000004768 -0.344682008028
-0.205521002412 1.20000004768 -0.352324008942
-0.333606988192 1.20000004768 -0.354220986366
-0.485408008099 1.20000004768 -0.351204007864
0.0291760005057 0.0 -0.569925010204
-0.177359998226 0.0 -0.56944000721
-0.369507998228 0.0 -0.568877995014
-0.563768029213 0.0 -0.57208698988
0.00131521001458 0.449122011662 -0.543923974037
-0.173856005073 0.463519990444 -0.551962018013
-0.368106007576 0.453222006559 -0.554395020008
-0.542632997036 0.427890986204 -0.550462007523
-0.039100099355 0.819414019585 -0.511067986488
-0.190400004387 0.863864004612 -0.512642979622
-0.344642996788 0.858170986176 -0.516551971436
-0.500335991383 0.798151016235 -0.520832002163
-0.0538537018001 1.20000004768 -0.502158999443
-0.203850001097 1.20000004768 -0.492740005255
-0.328705996275 1.20000004768 -0.496598005295
-0.485334992409 1.20000004768 -0.514407992363
TENSORS PE_0 float
-0.102078996599 -0.00337331998162 0.008195489645
-0.00337331998162 0.203716993332 0.00124662998132
0.008195489645 0.00124662998132 -0.101637996733

-0.115768998861 -0.0176873505116 -0.000504919502418
-0.0176873505116 0.228048503399 -0.00686385994777
-0.000504919502418 -0.00686385994777 -0.112279497087

-0.122825503349 0.00676156487316 -0.000311325013172
0.00676156487316 0.242226496339 -0.012290449813
-0.000311325013172 -0.012290449813 -0.11940100044

-0.116351999342 0.0110117997974 -0.00441225012764
0.0110117997974 0.229660004377 -0.00618130993098
-0.00441225012764 -0.00618130993098 -0.113307997584

-0.111712001264 0.0117213446647 -0.00031010285602
0.0117213446647 0.224273994565 0.00742697482929
-0.00031010285602 0.00742697482929 -0.112561501563

-0.109112247825 0.00302911992185 0.000557824852876
0.00302911992185 0.218965753913 -0.00675765238702
0.000557824852876 -0.00675765238702 -0.109853751957

-0.109769500792 0.00577520485967 -0.00229517300613
0.00577520485967 0.219863504171 -0.0173337254673
-0.00229517300613 -0.0173337254673 -0.11009375006

-0.112465001643 0.0044054063037 -0.000168479920831
0.0044054063037 0.225893497467 -0.0120925800875
-0.000168479920831 -0.0120925800875 -0.113427996635

-0.107433147728 -0.0243709497154 -0.00581871019676
-0.0243709497154 0.214242994785 -0.017960799858
-0.00581871019676 -0.017960799858 -0.106809653342

-0.100533723831 -0.00161664246116 0.000742529751733
-0.00161664246116 0.201255246997 -0.00645968737081
0.000742529751733 -0.00645968737081 -0.100721396506

-0.0957981273532 0.00876960530877 -0.000446771999123
0.00876960530877 0.19364349544 -0.00768213765696
-0.000446771999123 -0.00768213765696 -0.0978453010321

-0.0989831537008 0.024331599474 0.000593492004555
0.024331599474 0.199380993843 -0.0199618004262
0.000593492004555 -0.0199618004262 -0.100398048759

-0.0905674025416 -0.0162089001387 0.00368861993775
-0.0162089001387 0.18008300662 -0.0264098998159
0.00368861993775 -0.0264098998159 -0.0895159989595

-0.0966205000877 0.0103353001177 -0.0014113310026
0.0103353001177 0.192104503512 -0.0160755999386
-0.0014113310026 -0.0160755999386 -0.0954841002822

-0.0965692028403 -0.00223282491788 0.00616478500888
-0.00223282491788 0.190736994147 -0.00950704980642
0.00616478500888 -0.00950704980642 -0.0941674485803

-0.0906905010343 0.00632868008688 0.000968533975538
0.00632868008688 0.178885996342 -0.0139578003436
0.000968533975538 -0.0139578003436 -0.088195502758

-0.110237501562 -0.00399767514318 -0.0014584264718
-0.00399767514318 0.222745493054 -0.0143376495689
-0.0014584264718 -0.0143376495689 -0.112508498132

-0.118504248559 -0.0101080248132 -0.0119141750038
-0.0101080248132 0.235951244831 -0.00607765745372
-0.0119141750038 -0.00607765745372 -0.117447249591

-0.122304998338 0.00448713265359 -0.00202074507251
0.00448713265359 0.241952002048 -0.00170036999043
-0.00202074507251 -0.00170036999043 -0.11964700371

-0.11742349714 0.00956629030406 0.000500645488501
0.00956629030406 0.233626499772 -0.00590502982959
0.000500645488501 -0.00590502982959 -0.116204001009

-0.112925000489 -0.0012130800169 0.00268037966453
-0.0012130800169 0.226476743817 0.00310231256299